<?xml version="1.0"?>
<VTKFile type="UnstructuredGrid" version="0.1" byte_order="LittleEndian">
  <UnstructuredGrid>
    <Piece NumberOfPoints="16" NumberOfCells="10">
      <!-- 16 points: 8 on z=0 circle, 8 on z=0.5 circle -->
      <Points>
        <DataArray type="Float32" NumberOfComponents="3" format="ascii">
          <!-- z = 0 ring -->
          1.0000  0.0000  0.0
          0.7071  0.7071  0.0
          0.0000  1.0000  0.0
         -0.7071  0.7071  0.0
         -1.0000  0.0000  0.0
         -0.7071 -0.7071  0.0
          0.0000 -1.0000  0.0
          0.7071 -0.7071  0.0
          <!-- z = 0.5 ring -->
          1.0000  0.0000  0.5
          0.7071  0.7071  0.5
          0.0000  1.0000  0.5
         -0.7071  0.7071  0.5
         -1.0000  0.0000  0.5
         -0.7071 -0.7071  0.5
          0.0000 -1.0000  0.5
          0.7071 -0.7071  0.5
        </DataArray>
      </Points>

      <Cells>
        <!-- connectivity for 8 quad side faces + 2 polygon endcaps -->
        <DataArray type="Int32" Name="connectivity" format="ascii">
          <!-- side quads -->
          0 1 9 8
          1 2 10 9
          2 3 11 10
          3 4 12 11
          4 5 13 12
          5 6 14 13
          6 7 15 14
          7 0 8 15
          <!-- bottom cap (z=0) as 8-gon -->
          0 7 6 5 4 3 2 1
          <!-- top cap (z=0.5) as 8-gon -->
          8 9 10 11 12 13 14 15
        </DataArray>
        <DataArray type="Int32" Name="offsets" format="ascii">
          <!-- quads add 4 each, caps add 8 each -->
          4 8 12 16 20 24 28 32 40 48
        </DataArray>
        <DataArray type="UInt8" Name="types" format="ascii">
          <!-- 8 × VTK_QUAD (9), 2 × VTK_POLYGON (7) -->
          9 9 9 9 9 9 9 9 7 7
        </DataArray>
      </Cells>

      <!-- PointData: aerospace fields -->
      <PointData Scalars="MachNumber" Vectors="Velocity">
        <DataArray type="Float32" Name="MachNumber" format="ascii">
          0.75 0.80 0.85 0.78 0.76 0.82 0.88 0.79
          0.77 0.83 0.87 0.82 0.80 0.85 0.89 0.81
        </DataArray>
        <DataArray type="Float32" Name="StaticPressure" format="ascii">
          101325 100800 100500 101100 100900 100600 100300 100950
          101000 100850 100550 101150 100950 100700 100400 101050
        </DataArray>
        <DataArray type="Float32" Name="Velocity" NumberOfComponents="3" format="ascii">
          230.0   0.0    0.0
          235.0  10.0    0.0
          240.0  20.0    0.0
          232.0  15.0    0.0
          228.0   0.0   50.0
          233.0  10.0   50.0
          238.0  20.0   50.0
          230.0  15.0   50.0
          231.0   5.0   25.0
          236.0  12.0   25.0
          239.0  22.0   25.0
          233.0  18.0   25.0
          229.0   2.0   75.0
          234.0  11.0   75.0
          237.0  21.0   75.0
          231.0  17.0   75.0
        </DataArray>
      </PointData>

      <!-- CellData: coefficients -->
      <CellData Scalars="PressureCoefficient">
        <DataArray type="Float32" Name="PressureCoefficient" format="ascii">
          -0.02 -0.04 -0.03 -0.025 -0.035 -0.03 -0.022 -0.028 0.0 0.0
        </DataArray>
        <DataArray type="Float32" Name="LiftCoefficient" format="ascii">
          0.45 0.50 0.48 0.46 0.49 0.47 0.44 0.48 0.0 0.0
        </DataArray>
      </CellData>
    </Piece>
  </UnstructuredGrid>
</VTKFile>
